ID,Formula,Tc,Pc,omega,kappa1,chemGroup,I,alpha,M,H1,H2,H3,H4,A1,B1,A2,B2
4,i-C4H10,407.81,3.629,0.184,0.0885,"{1: 3, 3: 1}",10.57,8.14,58.12,-164.9974836,8433.61852,21.56014092,0.008439859,0.015443976,0.057877134,5.82E-21,0.213163568
5,C5H12,469.8,3.36,0.251,0.03946,"{1: 2, 2: 3}",10.28,9.879,72.15,-159.8681429,8742.425767,21.67121288,-0.001102164,1,0,1,0
6,C6H14,507.6,3.02,0.299,0.05104,"{1: 2, 2: 4}",10.13,11.63,86.18,96.11575239,-2472.571716,-17.36799195,0,1,0,1,0
7,CO2,304.2,7.376,0.225,0.04285,{117: 1},13.773,2.911,44.01,-159.868,8742.426,21.6712,-0.0011,1.16E-08,0.118423502,0.000255561,0.082930345
8,H2S,373.1,9,0.1005,0,{114:1},10.457,3.631,34.08,-149.551,8227.328,20.2327,0.00129,0.000381525,0.07166131,1.78E-06,0.09153445
9,N2,126.192,3.3958,0.0372,0.01996,{115: 1},15.5808,1.7403,28.01,-144.4096628,7775.842979,18.39924509,0.009444489,0.000257526,0.091388021,0.000257526,0.091388021
10,O2,154.581,5.043,0.0222,0.01512,{119: 1},12.07,1.562,32,-149.551082,8227.32763,20.23271263,0.001294177,0.000184714,0.09153445,0.000184714,0.09153445