<?xml version="1.0" encoding="UTF-8"?>

<!-- generated on 2025-12-12 11:23:17 by Eclipse SUMO libsumo Version 1.24.0
<libsumoConfiguration xmlns:xsi="http://www.w3.org/2001/XMLSchema-instance" xsi:noNamespaceSchemaLocation="http://sumo.dlr.de/xsd/libsumoConfiguration.xsd">

    <input>
        <net-file value="/home/julesbompard/Documents/Projets/sumo-experiments/src/sumo_experiments/preset_networks/bologna/acosta/acosta_buslanes.net.xml"/>
        <route-files value="/home/julesbompard/Documents/Projets/sumo-experiments/src/sumo_experiments/preset_networks/bologna/acosta/acosta_37305.rou.xml,/home/julesbompard/Documents/Projets/sumo-experiments/src/sumo_experiments/preset_networks/bologna/acosta/acosta_busses.rou.xml"/>
        <additional-files value="/home/julesbompard/Documents/Projets/sumo-experiments/src/sumo_experiments/preset_networks/bologna/acosta/acosta_tls.add.xml,/home/julesbompard/Documents/Projets/sumo-experiments/src/sumo_experiments/preset_networks/bologna/acosta/acosta_vtypes.add.xml,/home/julesbompard/Documents/Projets/sumo-experiments/src/sumo_experiments/preset_networks/bologna/acosta/acosta_detectors.add.xml,/home/julesbompard/Documents/Projets/sumo-experiments/src/sumo_experiments/preset_networks/bologna/acosta/acosta_bus_stops.add.xml"/>
    </input>

    <output>
        <tripinfo-output value="/home/julesbompard/Documents/Projets/sumo-experiments/src/sumo_experiments/preset_networks/bologna/acosta/tripinfos.xml"/>
    </output>

    <processing>
        <threads value="8"/>
        <time-to-teleport value="500"/>
    </processing>

    <report>
        <no-warnings value="true"/>
        <log value="/home/julesbompard/Documents/Projets/sumo-experiments/src/sumo_experiments/preset_networks/bologna/acosta/sumo_log.txt"/>
        <no-step-log value="true"/>
    </report>

    <random_number>
        <random value="true"/>
    </random_number>

    <gui_only>
        <gui-settings-file value="/home/julesbompard/Documents/Projets/sumo-experiments/src/sumo_experiments/preset_networks/bologna/acosta/settings.gui.xml"/>
    </gui_only>

</libsumoConfiguration>
-->

<detector xmlns:xsi="http://www.w3.org/2001/XMLSchema-instance" xsi:noNamespaceSchemaLocation="http://sumo.dlr.de/xsd/det_e2_file.xsd">
   <interval begin="0.00" end="3600.00" id="34_1" sampledSeconds="11054.17" nVehEntered="317" nVehLeft="313" nVehSeen="317" meanSpeed="0.71" meanTimeLoss="32.94" meanOccupancy="61.23" maxOccupancy="84.88" meanMaxJamLengthInVehicles="2.58" meanMaxJamLengthInMeters="12.97" maxJamLengthInVehicles="4" maxJamLengthInMeters="20.00" jamLengthInVehiclesSum="9302" jamLengthInMetersSum="46680.56" meanHaltingDuration="34.70" maxHaltingDuration="479.00" haltingDurationSum="9578.00" meanIntervalHaltingDuration="34.70" maxIntervalHaltingDuration="479.00" intervalHaltingDurationSum="9578.00" startedHalts="276.00" meanVehicleNumber="3.16" maxVehicleNumber="4" />
   <interval begin="0.00" end="3600.00" id="34_2" sampledSeconds="8607.06" nVehEntered="413" nVehLeft="410" nVehSeen="413" meanSpeed="1.19" meanTimeLoss="18.53" meanOccupancy="47.40" maxOccupancy="80.18" meanMaxJamLengthInVehicles="1.71" meanMaxJamLengthInMeters="8.46" maxJamLengthInVehicles="4" maxJamLengthInMeters="20.00" jamLengthInVehiclesSum="6161" jamLengthInMetersSum="30467.49" meanHaltingDuration="19.56" maxHaltingDuration="57.00" haltingDurationSum="6493.00" meanIntervalHaltingDuration="19.56" maxIntervalHaltingDuration="57.00" intervalHaltingDurationSum="6493.00" startedHalts="332.00" meanVehicleNumber="2.50" maxVehicleNumber="4" />
   <interval begin="0.00" end="3600.00" id="34_3" sampledSeconds="8897.45" nVehEntered="419" nVehLeft="415" nVehSeen="419" meanSpeed="1.08" meanTimeLoss="19.47" meanOccupancy="55.60" maxOccupancy="81.89" meanMaxJamLengthInVehicles="1.96" meanMaxJamLengthInMeters="10.95" maxJamLengthInVehicles="4" maxJamLengthInMeters="20.00" jamLengthInVehiclesSum="7067" jamLengthInMetersSum="39435.89" meanHaltingDuration="23.60" maxHaltingDuration="421.00" haltingDurationSum="6017.00" meanIntervalHaltingDuration="23.60" maxIntervalHaltingDuration="421.00" intervalHaltingDurationSum="6017.00" startedHalts="280.00" meanVehicleNumber="2.58" maxVehicleNumber="4" />
   <interval begin="0.00" end="3600.00" id="34_4" sampledSeconds="6725.04" nVehEntered="689" nVehLeft="686" nVehSeen="689" meanSpeed="2.32" meanTimeLoss="8.11" meanOccupancy="39.77" maxOccupancy="79.38" meanMaxJamLengthInVehicles="1.15" meanMaxJamLengthInMeters="6.07" maxJamLengthInVehicles="4" maxJamLengthInMeters="20.00" jamLengthInVehiclesSum="4143" jamLengthInMetersSum="21857.94" meanHaltingDuration="13.59" maxHaltingDuration="19.00" haltingDurationSum="4431.00" meanIntervalHaltingDuration="13.59" maxIntervalHaltingDuration="19.00" intervalHaltingDurationSum="4431.00" startedHalts="342.00" meanVehicleNumber="2.05" maxVehicleNumber="4" />
   <interval begin="0.00" end="3600.00" id="34_5" sampledSeconds="5317.66" nVehEntered="440" nVehLeft="438" nVehSeen="440" meanSpeed="2.00" meanTimeLoss="10.37" meanOccupancy="31.96" maxOccupancy="79.38" meanMaxJamLengthInVehicles="0.92" meanMaxJamLengthInMeters="4.86" maxJamLengthInVehicles="4" maxJamLengthInMeters="19.87" jamLengthInVehiclesSum="3311" jamLengthInMetersSum="17483.66" meanHaltingDuration="11.89" maxHaltingDuration="18.00" haltingDurationSum="3615.00" meanIntervalHaltingDuration="11.89" maxIntervalHaltingDuration="18.00" intervalHaltingDurationSum="3615.00" startedHalts="304.00" meanVehicleNumber="1.59" maxVehicleNumber="4" />
   <interval begin="0.00" end="3600.00" id="34_6" sampledSeconds="4664.81" nVehEntered="429" nVehLeft="426" nVehSeen="429" meanSpeed="2.28" meanTimeLoss="9.07" meanOccupancy="26.59" maxOccupancy="82.33" meanMaxJamLengthInVehicles="0.74" meanMaxJamLengthInMeters="3.88" maxJamLengthInVehicles="4" maxJamLengthInMeters="20.00" jamLengthInVehiclesSum="2662" jamLengthInMetersSum="13962.09" meanHaltingDuration="12.70" maxHaltingDuration="27.00" haltingDurationSum="2744.00" meanIntervalHaltingDuration="12.70" maxIntervalHaltingDuration="27.00" intervalHaltingDurationSum="2744.00" startedHalts="258.00" meanVehicleNumber="1.41" maxVehicleNumber="4" />
   <interval begin="0.00" end="3600.00" id="34_7" sampledSeconds="2869.66" nVehEntered="705" nVehLeft="703" nVehSeen="705" meanSpeed="5.80" meanTimeLoss="2.33" meanOccupancy="15.90" maxOccupancy="71.77" meanMaxJamLengthInVehicles="0.31" meanMaxJamLengthInMeters="1.46" maxJamLengthInVehicles="3" maxJamLengthInMeters="17.85" jamLengthInVehiclesSum="1102" jamLengthInMetersSum="5241.00" meanHaltingDuration="17.30" maxHaltingDuration="249.00" haltingDurationSum="917.00" meanIntervalHaltingDuration="17.30" maxIntervalHaltingDuration="249.00" intervalHaltingDurationSum="917.00" startedHalts="90.00" meanVehicleNumber="0.97" maxVehicleNumber="4" />
   <interval begin="0.00" end="3600.00" id="34_8" sampledSeconds="1502.44" nVehEntered="840" nVehLeft="839" nVehSeen="840" meanSpeed="12.06" meanTimeLoss="0.24" meanOccupancy="8.17" maxOccupancy="41.02" meanMaxJamLengthInVehicles="0.00" meanMaxJamLengthInMeters="0.00" maxJamLengthInVehicles="0" maxJamLengthInMeters="0.00" jamLengthInVehiclesSum="0" jamLengthInMetersSum="0.00" meanHaltingDuration="0.00" maxHaltingDuration="0.00" haltingDurationSum="0.00" meanIntervalHaltingDuration="0.00" maxIntervalHaltingDuration="0.00" intervalHaltingDurationSum="0.00" startedHalts="0.00" meanVehicleNumber="0.62" maxVehicleNumber="3" />
   <interval begin="0.00" end="3600.00" id="34_9" sampledSeconds="112.21" nVehEntered="136" nVehLeft="136" nVehSeen="136" meanSpeed="12.43" meanTimeLoss="0.12" meanOccupancy="0.27" maxOccupancy="25.00" meanMaxJamLengthInVehicles="0.00" meanMaxJamLengthInMeters="0.00" maxJamLengthInVehicles="0" maxJamLengthInMeters="0.00" jamLengthInVehiclesSum="0" jamLengthInMetersSum="0.00" meanHaltingDuration="0.00" maxHaltingDuration="0.00" haltingDurationSum="0.00" meanIntervalHaltingDuration="0.00" maxIntervalHaltingDuration="0.00" intervalHaltingDurationSum="0.00" startedHalts="0.00" meanVehicleNumber="0.05" maxVehicleNumber="1" />
   <interval begin="0.00" end="3600.00" id="34_10" sampledSeconds="11053.23" nVehEntered="317" nVehLeft="313" nVehSeen="317" meanSpeed="0.71" meanTimeLoss="32.93" meanOccupancy="61.28" maxOccupancy="84.96" meanMaxJamLengthInVehicles="2.58" meanMaxJamLengthInMeters="12.97" maxJamLengthInVehicles="4" maxJamLengthInMeters="19.98" jamLengthInVehiclesSum="9302" jamLengthInMetersSum="46678.72" meanHaltingDuration="34.70" maxHaltingDuration="479.00" haltingDurationSum="9578.00" meanIntervalHaltingDuration="34.70" maxIntervalHaltingDuration="479.00" intervalHaltingDurationSum="9578.00" startedHalts="276.00" meanVehicleNumber="3.16" maxVehicleNumber="4" />
   <interval begin="0.00" end="3600.00" id="34_11" sampledSeconds="51898.38" nVehEntered="349" nVehLeft="320" nVehSeen="349" meanSpeed="1.18" meanTimeLoss="136.01" meanOccupancy="38.02" maxOccupancy="77.19" meanMaxJamLengthInVehicles="11.81" meanMaxJamLengthInMeters="73.06" maxJamLengthInVehicles="29" maxJamLengthInMeters="180.00" jamLengthInVehiclesSum="44047" jamLengthInMetersSum="272039.96" meanHaltingDuration="60.37" maxHaltingDuration="480.00" haltingDurationSum="44675.00" meanIntervalHaltingDuration="60.37" maxIntervalHaltingDuration="480.00" intervalHaltingDurationSum="44675.00" startedHalts="782.00" meanVehicleNumber="14.51" maxVehicleNumber="29" />
   <interval begin="0.00" end="3600.00" id="34_12" sampledSeconds="35661.45" nVehEntered="429" nVehLeft="410" nVehSeen="429" meanSpeed="1.56" meanTimeLoss="73.25" meanOccupancy="37.01" maxOccupancy="76.91" meanMaxJamLengthInVehicles="6.10" meanMaxJamLengthInMeters="37.70" maxJamLengthInVehicles="20" maxJamLengthInMeters="126.78" jamLengthInVehiclesSum="23458" jamLengthInMetersSum="144336.74" meanHaltingDuration="16.19" maxHaltingDuration="57.00" haltingDurationSum="25002.00" meanIntervalHaltingDuration="16.19" maxIntervalHaltingDuration="57.00" intervalHaltingDurationSum="25002.00" startedHalts="1544.00" meanVehicleNumber="10.02" maxVehicleNumber="21" />
   <interval begin="0.00" end="3600.00" id="34_13" sampledSeconds="19239.71" nVehEntered="713" nVehLeft="703" nVehSeen="713" meanSpeed="2.30" meanTimeLoss="22.36" meanOccupancy="33.58" maxOccupancy="76.85" meanMaxJamLengthInVehicles="3.67" meanMaxJamLengthInMeters="23.24" maxJamLengthInVehicles="13" maxJamLengthInMeters="77.49" jamLengthInVehiclesSum="13345" jamLengthInMetersSum="84297.68" meanHaltingDuration="25.73" maxHaltingDuration="421.00" haltingDurationSum="11578.00" meanIntervalHaltingDuration="25.73" maxIntervalHaltingDuration="421.00" intervalHaltingDurationSum="11578.00" startedHalts="593.00" meanVehicleNumber="5.49" maxVehicleNumber="13" />
   <interval begin="0.00" end="3600.00" id="34_14" sampledSeconds="11174.46" nVehEntered="1077" nVehLeft="1073" nVehSeen="1077" meanSpeed="5.15" meanTimeLoss="6.50" meanOccupancy="18.36" maxOccupancy="48.50" meanMaxJamLengthInVehicles="1.31" meanMaxJamLengthInMeters="7.53" maxJamLengthInVehicles="7" maxJamLengthInMeters="43.03" jamLengthInVehiclesSum="4713" jamLengthInMetersSum="27112.86" meanHaltingDuration="13.46" maxHaltingDuration="19.00" haltingDurationSum="5035.00" meanIntervalHaltingDuration="13.46" maxIntervalHaltingDuration="19.00" intervalHaltingDurationSum="5035.00" startedHalts="406.00" meanVehicleNumber="3.29" maxVehicleNumber="8" />
   <interval begin="0.00" end="3600.00" id="34_15" sampledSeconds="6686.13" nVehEntered="440" nVehLeft="438" nVehSeen="440" meanSpeed="3.04" meanTimeLoss="11.96" meanOccupancy="10.69" maxOccupancy="43.46" meanMaxJamLengthInVehicles="1.03" meanMaxJamLengthInMeters="5.90" maxJamLengthInVehicles="7" maxJamLengthInMeters="43.18" jamLengthInVehiclesSum="3726" jamLengthInMetersSum="21224.03" meanHaltingDuration="12.06" maxHaltingDuration="18.00" haltingDurationSum="4063.00" meanIntervalHaltingDuration="12.06" maxIntervalHaltingDuration="18.00" intervalHaltingDurationSum="4063.00" startedHalts="337.00" meanVehicleNumber="1.92" maxVehicleNumber="7" />
   <interval begin="0.00" end="3600.00" id="34_16" sampledSeconds="35197.65" nVehEntered="380" nVehLeft="360" nVehSeen="380" meanSpeed="1.39" meanTimeLoss="83.33" meanOccupancy="36.67" maxOccupancy="78.80" meanMaxJamLengthInVehicles="8.03" meanMaxJamLengthInMeters="49.27" maxJamLengthInVehicles="21" maxJamLengthInMeters="127.54" jamLengthInVehiclesSum="29603" jamLengthInMetersSum="181487.90" meanHaltingDuration="69.84" maxHaltingDuration="481.00" haltingDurationSum="30033.00" meanIntervalHaltingDuration="69.84" maxIntervalHaltingDuration="481.00" intervalHaltingDurationSum="30033.00" startedHalts="430.00" meanVehicleNumber="9.88" maxVehicleNumber="21" />
   <interval begin="0.00" end="3600.00" id="34_17" sampledSeconds="12662.39" nVehEntered="935" nVehLeft="933" nVehSeen="935" meanSpeed="11.96" meanTimeLoss="1.43" meanOccupancy="8.31" maxOccupancy="22.25" meanMaxJamLengthInVehicles="0.01" meanMaxJamLengthInMeters="0.14" maxJamLengthInVehicles="1" maxJamLengthInMeters="12.00" jamLengthInVehiclesSum="41" jamLengthInMetersSum="492.00" meanHaltingDuration="21.50" maxHaltingDuration="22.00" haltingDurationSum="43.00" meanIntervalHaltingDuration="21.50" maxIntervalHaltingDuration="22.00" intervalHaltingDurationSum="43.00" startedHalts="2.00" meanVehicleNumber="3.73" maxVehicleNumber="10" />
   <interval begin="0.00" end="3600.00" id="34_18" sampledSeconds="9761.17" nVehEntered="829" nVehLeft="826" nVehSeen="829" meanSpeed="12.81" meanTimeLoss="0.94" meanOccupancy="6.36" maxOccupancy="23.75" meanMaxJamLengthInVehicles="0.00" meanMaxJamLengthInMeters="0.00" maxJamLengthInVehicles="0" maxJamLengthInMeters="0.00" jamLengthInVehiclesSum="0" jamLengthInMetersSum="0.00" meanHaltingDuration="0.00" maxHaltingDuration="0.00" haltingDurationSum="0.00" meanIntervalHaltingDuration="0.00" maxIntervalHaltingDuration="0.00" intervalHaltingDurationSum="0.00" startedHalts="0.00" meanVehicleNumber="2.88" maxVehicleNumber="11" />
   <interval begin="0.00" end="3600.00" id="34_19" sampledSeconds="6813.57" nVehEntered="489" nVehLeft="487" nVehSeen="489" meanSpeed="12.95" meanTimeLoss="1.25" meanOccupancy="4.47" maxOccupancy="22.00" meanMaxJamLengthInVehicles="0.00" meanMaxJamLengthInMeters="0.00" maxJamLengthInVehicles="0" maxJamLengthInMeters="0.00" jamLengthInVehiclesSum="0" jamLengthInMetersSum="0.00" meanHaltingDuration="0.00" maxHaltingDuration="0.00" haltingDurationSum="0.00" meanIntervalHaltingDuration="0.00" maxIntervalHaltingDuration="0.00" intervalHaltingDurationSum="0.00" startedHalts="0.00" meanVehicleNumber="2.01" maxVehicleNumber="9" />
   <interval begin="0.00" end="3600.00" id="27_1" sampledSeconds="10063.45" nVehEntered="698" nVehLeft="694" nVehSeen="698" meanSpeed="1.70" meanTimeLoss="12.29" meanOccupancy="56.05" maxOccupancy="85.00" meanMaxJamLengthInVehicles="1.76" meanMaxJamLengthInMeters="8.82" maxJamLengthInVehicles="4" maxJamLengthInMeters="20.00" jamLengthInVehiclesSum="6333" jamLengthInMetersSum="31763.52" meanHaltingDuration="16.18" maxHaltingDuration="22.00" haltingDurationSum="6746.00" meanIntervalHaltingDuration="16.18" maxIntervalHaltingDuration="22.00" intervalHaltingDurationSum="6746.00" startedHalts="421.00" meanVehicleNumber="3.00" maxVehicleNumber="4" />
   <interval begin="0.00" end="3600.00" id="27_2" sampledSeconds="10165.07" nVehEntered="658" nVehLeft="654" nVehSeen="658" meanSpeed="1.56" meanTimeLoss="13.70" meanOccupancy="55.80" maxOccupancy="80.08" meanMaxJamLengthInVehicles="1.91" meanMaxJamLengthInMeters="9.41" maxJamLengthInVehicles="4" maxJamLengthInMeters="20.00" jamLengthInVehiclesSum="6885" jamLengthInMetersSum="33885.45" meanHaltingDuration="14.77" maxHaltingDuration="30.00" haltingDurationSum="7371.00" meanIntervalHaltingDuration="14.77" maxIntervalHaltingDuration="30.00" intervalHaltingDurationSum="7371.00" startedHalts="506.00" meanVehicleNumber="3.01" maxVehicleNumber="4" />
   <interval begin="0.00" end="3600.00" id="27_3" sampledSeconds="9974.59" nVehEntered="585" nVehLeft="581" nVehSeen="585" meanSpeed="1.44" meanTimeLoss="15.27" meanOccupancy="54.75" maxOccupancy="82.58" meanMaxJamLengthInVehicles="1.93" meanMaxJamLengthInMeters="9.50" maxJamLengthInVehicles="4" maxJamLengthInMeters="20.00" jamLengthInVehiclesSum="6959" jamLengthInMetersSum="34202.28" meanHaltingDuration="16.22" maxHaltingDuration="42.00" haltingDurationSum="7414.00" meanIntervalHaltingDuration="16.22" maxIntervalHaltingDuration="42.00" intervalHaltingDurationSum="7414.00" startedHalts="458.00" meanVehicleNumber="2.94" maxVehicleNumber="4" />
   <interval begin="0.00" end="3600.00" id="27_4" sampledSeconds="0.00" nVehEntered="0" nVehLeft="0" nVehSeen="0" meanSpeed="-1.00" meanTimeLoss="-1.00" meanOccupancy="0.00" maxOccupancy="0.00" meanMaxJamLengthInVehicles="0.00" meanMaxJamLengthInMeters="0.00" maxJamLengthInVehicles="0" maxJamLengthInMeters="0.00" jamLengthInVehiclesSum="0" jamLengthInMetersSum="0.00" meanHaltingDuration="0.00" maxHaltingDuration="0.00" haltingDurationSum="0.00" meanIntervalHaltingDuration="0.00" maxIntervalHaltingDuration="0.00" intervalHaltingDurationSum="0.00" startedHalts="0.00" meanVehicleNumber="0.00" maxVehicleNumber="0" />
   <interval begin="0.00" end="3600.00" id="27_5" sampledSeconds="890.69" nVehEntered="24" nVehLeft="23" nVehSeen="24" meanSpeed="0.59" meanTimeLoss="35.54" meanOccupancy="23.77" maxOccupancy="100.00" meanMaxJamLengthInVehicles="0.22" meanMaxJamLengthInMeters="2.24" maxJamLengthInVehicles="1" maxJamLengthInMeters="10.38" jamLengthInVehiclesSum="778" jamLengthInMetersSum="8073.58" meanHaltingDuration="46.76" maxHaltingDuration="291.00" haltingDurationSum="795.00" meanIntervalHaltingDuration="46.76" maxIntervalHaltingDuration="291.00" intervalHaltingDurationSum="795.00" startedHalts="17.00" meanVehicleNumber="0.26" maxVehicleNumber="1" />
   <interval begin="0.00" end="3600.00" id="27_6" sampledSeconds="0.00" nVehEntered="0" nVehLeft="0" nVehSeen="0" meanSpeed="-1.00" meanTimeLoss="-1.00" meanOccupancy="0.00" maxOccupancy="0.00" meanMaxJamLengthInVehicles="0.00" meanMaxJamLengthInMeters="0.00" maxJamLengthInVehicles="0" maxJamLengthInMeters="0.00" jamLengthInVehiclesSum="0" jamLengthInMetersSum="0.00" meanHaltingDuration="0.00" maxHaltingDuration="0.00" haltingDurationSum="0.00" meanIntervalHaltingDuration="0.00" maxIntervalHaltingDuration="0.00" intervalHaltingDurationSum="0.00" startedHalts="0.00" meanVehicleNumber="0.00" maxVehicleNumber="0" />
   <interval begin="0.00" end="3600.00" id="27_7" sampledSeconds="8947.35" nVehEntered="601" nVehLeft="597" nVehSeen="601" meanSpeed="1.64" meanTimeLoss="13.08" meanOccupancy="50.93" maxOccupancy="85.00" meanMaxJamLengthInVehicles="1.70" meanMaxJamLengthInMeters="8.61" maxJamLengthInVehicles="4" maxJamLengthInMeters="20.00" jamLengthInVehiclesSum="6111" jamLengthInMetersSum="30999.82" meanHaltingDuration="16.12" maxHaltingDuration="40.00" haltingDurationSum="6449.00" meanIntervalHaltingDuration="16.12" maxIntervalHaltingDuration="40.00" intervalHaltingDurationSum="6449.00" startedHalts="404.00" meanVehicleNumber="2.65" maxVehicleNumber="4" />
   <interval begin="0.00" end="3600.00" id="27_8" sampledSeconds="8281.28" nVehEntered="763" nVehLeft="760" nVehSeen="763" meanSpeed="2.24" meanTimeLoss="9.11" meanOccupancy="46.57" maxOccupancy="82.47" meanMaxJamLengthInVehicles="1.42" meanMaxJamLengthInMeters="7.16" maxJamLengthInVehicles="4" maxJamLengthInMeters="20.00" jamLengthInVehiclesSum="5104" jamLengthInMetersSum="25766.07" meanHaltingDuration="14.32" maxHaltingDuration="19.00" haltingDurationSum="5486.00" meanIntervalHaltingDuration="14.32" maxIntervalHaltingDuration="19.00" intervalHaltingDurationSum="5486.00" startedHalts="384.00" meanVehicleNumber="2.51" maxVehicleNumber="4" />
   <interval begin="0.00" end="3600.00" id="27_9" sampledSeconds="1323.53" nVehEntered="49" nVehLeft="48" nVehSeen="49" meanSpeed="0.73" meanTimeLoss="25.60" meanOccupancy="8.60" maxOccupancy="72.50" meanMaxJamLengthInVehicles="0.31" meanMaxJamLengthInMeters="1.62" maxJamLengthInVehicles="3" maxJamLengthInMeters="19.10" jamLengthInVehiclesSum="1101" jamLengthInMetersSum="5834.75" meanHaltingDuration="26.27" maxHaltingDuration="107.00" haltingDurationSum="1077.00" meanIntervalHaltingDuration="26.27" maxIntervalHaltingDuration="107.00" intervalHaltingDurationSum="1077.00" startedHalts="46.00" meanVehicleNumber="0.38" maxVehicleNumber="3" />
   <interval begin="0.00" end="3600.00" id="27_10" sampledSeconds="2945.40" nVehEntered="111" nVehLeft="111" nVehSeen="111" meanSpeed="0.94" meanTimeLoss="24.44" meanOccupancy="18.38" maxOccupancy="74.99" meanMaxJamLengthInVehicles="0.66" meanMaxJamLengthInMeters="3.59" maxJamLengthInVehicles="4" maxJamLengthInMeters="20.01" jamLengthInVehiclesSum="2392" jamLengthInMetersSum="12941.58" meanHaltingDuration="32.06" maxHaltingDuration="114.00" haltingDurationSum="2469.00" meanIntervalHaltingDuration="32.06" maxIntervalHaltingDuration="114.00" intervalHaltingDurationSum="2469.00" startedHalts="77.00" meanVehicleNumber="0.85" maxVehicleNumber="4" />
   <interval begin="0.00" end="3600.00" id="27_11" sampledSeconds="489.24" nVehEntered="16" nVehLeft="16" nVehSeen="16" meanSpeed="0.87" meanTimeLoss="28.57" meanOccupancy="4.27" maxOccupancy="70.94" meanMaxJamLengthInVehicles="0.12" meanMaxJamLengthInMeters="0.77" maxJamLengthInVehicles="2" maxJamLengthInMeters="12.00" jamLengthInVehiclesSum="416" jamLengthInMetersSum="2778.19" meanHaltingDuration="47.22" maxHaltingDuration="115.00" haltingDurationSum="425.00" meanIntervalHaltingDuration="47.22" maxIntervalHaltingDuration="115.00" intervalHaltingDurationSum="425.00" startedHalts="9.00" meanVehicleNumber="0.14" maxVehicleNumber="2" />
   <interval begin="0.00" end="3600.00" id="27_12" sampledSeconds="9876.70" nVehEntered="142" nVehLeft="141" nVehSeen="142" meanSpeed="0.36" meanTimeLoss="67.64" meanOccupancy="56.28" maxOccupancy="77.49" meanMaxJamLengthInVehicles="2.48" meanMaxJamLengthInMeters="12.67" maxJamLengthInVehicles="4" maxJamLengthInMeters="20.01" jamLengthInVehiclesSum="8921" jamLengthInMetersSum="45597.59" meanHaltingDuration="49.08" maxHaltingDuration="350.00" haltingDurationSum="9080.00" meanIntervalHaltingDuration="49.08" maxIntervalHaltingDuration="350.00" intervalHaltingDurationSum="9080.00" startedHalts="192.00" meanVehicleNumber="2.78" maxVehicleNumber="4" />
   <interval begin="0.00" end="3600.00" id="27_13" sampledSeconds="7913.66" nVehEntered="767" nVehLeft="766" nVehSeen="767" meanSpeed="2.34" meanTimeLoss="8.56" meanOccupancy="44.35" maxOccupancy="82.45" meanMaxJamLengthInVehicles="1.20" meanMaxJamLengthInMeters="6.09" maxJamLengthInVehicles="4" maxJamLengthInMeters="20.00" jamLengthInVehiclesSum="4339" jamLengthInMetersSum="21944.60" meanHaltingDuration="13.38" maxHaltingDuration="23.00" haltingDurationSum="4374.00" meanIntervalHaltingDuration="13.38" maxIntervalHaltingDuration="23.00" intervalHaltingDurationSum="4374.00" startedHalts="373.00" meanVehicleNumber="2.41" maxVehicleNumber="4" />
   <interval begin="0.00" end="3600.00" id="27_14" sampledSeconds="6298.77" nVehEntered="1209" nVehLeft="1205" nVehSeen="1209" meanSpeed="3.54" meanTimeLoss="3.87" meanOccupancy="35.21" maxOccupancy="79.95" meanMaxJamLengthInVehicles="0.81" meanMaxJamLengthInMeters="3.69" maxJamLengthInVehicles="4" maxJamLengthInMeters="20.00" jamLengthInVehiclesSum="2901" jamLengthInMetersSum="13284.51" meanHaltingDuration="10.22" maxHaltingDuration="28.00" haltingDurationSum="2761.00" meanIntervalHaltingDuration="10.22" maxIntervalHaltingDuration="28.00" intervalHaltingDurationSum="2761.00" startedHalts="347.00" meanVehicleNumber="2.02" maxVehicleNumber="4" />
   <interval begin="0.00" end="3600.00" id="27_15" sampledSeconds="3839.60" nVehEntered="472" nVehLeft="470" nVehSeen="472" meanSpeed="1.87" meanTimeLoss="7.02" meanOccupancy="18.64" maxOccupancy="72.61" meanMaxJamLengthInVehicles="0.66" meanMaxJamLengthInMeters="2.83" maxJamLengthInVehicles="4" maxJamLengthInMeters="19.05" jamLengthInVehiclesSum="2360" jamLengthInMetersSum="10196.09" meanHaltingDuration="10.47" maxHaltingDuration="30.00" haltingDurationSum="2230.00" meanIntervalHaltingDuration="10.47" maxIntervalHaltingDuration="30.00" intervalHaltingDurationSum="2230.00" startedHalts="257.00" meanVehicleNumber="1.13" maxVehicleNumber="4" />
   <interval begin="0.00" end="3600.00" id="27_16" sampledSeconds="1311.73" nVehEntered="595" nVehLeft="595" nVehSeen="595" meanSpeed="11.05" meanTimeLoss="0.40" meanOccupancy="7.02" maxOccupancy="60.00" meanMaxJamLengthInVehicles="0.00" meanMaxJamLengthInMeters="0.00" maxJamLengthInVehicles="0" maxJamLengthInMeters="0.00" jamLengthInVehiclesSum="0" jamLengthInMetersSum="0.00" meanHaltingDuration="0.00" maxHaltingDuration="0.00" haltingDurationSum="0.00" meanIntervalHaltingDuration="0.00" maxIntervalHaltingDuration="0.00" intervalHaltingDurationSum="0.00" startedHalts="0.00" meanVehicleNumber="0.53" maxVehicleNumber="3" />
   <interval begin="0.00" end="3600.00" id="27_17" sampledSeconds="1501.24" nVehEntered="629" nVehLeft="629" nVehSeen="629" meanSpeed="9.32" meanTimeLoss="0.80" meanOccupancy="7.79" maxOccupancy="50.00" meanMaxJamLengthInVehicles="0.00" meanMaxJamLengthInMeters="0.00" maxJamLengthInVehicles="1" maxJamLengthInMeters="4.35" jamLengthInVehiclesSum="2" jamLengthInMetersSum="7.35" meanHaltingDuration="3.00" maxHaltingDuration="3.00" haltingDurationSum="3.00" meanIntervalHaltingDuration="3.00" maxIntervalHaltingDuration="3.00" intervalHaltingDurationSum="3.00" startedHalts="1.00" meanVehicleNumber="0.57" maxVehicleNumber="3" />
   <interval begin="0.00" end="3600.00" id="27_18" sampledSeconds="588.94" nVehEntered="324" nVehLeft="324" nVehSeen="324" meanSpeed="11.53" meanTimeLoss="0.31" meanOccupancy="3.41" maxOccupancy="47.50" meanMaxJamLengthInVehicles="0.00" meanMaxJamLengthInMeters="0.00" maxJamLengthInVehicles="0" maxJamLengthInMeters="0.00" jamLengthInVehiclesSum="0" jamLengthInMetersSum="0.00" meanHaltingDuration="0.00" maxHaltingDuration="0.00" haltingDurationSum="0.00" meanIntervalHaltingDuration="0.00" maxIntervalHaltingDuration="0.00" intervalHaltingDurationSum="0.00" startedHalts="1.00" meanVehicleNumber="0.24" maxVehicleNumber="3" />
   <interval begin="0.00" end="3600.00" id="27_19" sampledSeconds="683.05" nVehEntered="269" nVehLeft="269" nVehSeen="269" meanSpeed="9.83" meanTimeLoss="0.72" meanOccupancy="3.75" maxOccupancy="60.00" meanMaxJamLengthInVehicles="0.00" meanMaxJamLengthInMeters="0.00" maxJamLengthInVehicles="0" maxJamLengthInMeters="0.00" jamLengthInVehiclesSum="0" jamLengthInMetersSum="0.00" meanHaltingDuration="0.00" maxHaltingDuration="0.00" haltingDurationSum="0.00" meanIntervalHaltingDuration="0.00" maxIntervalHaltingDuration="0.00" intervalHaltingDurationSum="0.00" startedHalts="0.00" meanVehicleNumber="0.26" maxVehicleNumber="3" />
   <interval begin="0.00" end="3600.00" id="27_20" sampledSeconds="30894.94" nVehEntered="770" nVehLeft="761" nVehSeen="770" meanSpeed="1.95" meanTimeLoss="34.13" meanOccupancy="51.56" maxOccupancy="78.94" meanMaxJamLengthInVehicles="5.01" meanMaxJamLengthInMeters="30.81" maxJamLengthInVehicles="13" maxJamLengthInMeters="79.52" jamLengthInVehiclesSum="18101" jamLengthInMetersSum="111315.39" meanHaltingDuration="14.86" maxHaltingDuration="23.00" haltingDurationSum="19305.00" meanIntervalHaltingDuration="14.86" maxIntervalHaltingDuration="23.00" intervalHaltingDurationSum="19305.00" startedHalts="1326.00" meanVehicleNumber="8.79" maxVehicleNumber="13" />
   <interval begin="0.00" end="3600.00" id="27_21" sampledSeconds="29010.16" nVehEntered="1245" nVehLeft="1232" nVehSeen="1245" meanSpeed="2.13" meanTimeLoss="19.70" meanOccupancy="48.54" maxOccupancy="78.57" meanMaxJamLengthInVehicles="4.75" meanMaxJamLengthInMeters="28.90" maxJamLengthInVehicles="13" maxJamLengthInMeters="79.52" jamLengthInVehiclesSum="17373" jamLengthInMetersSum="105544.07" meanHaltingDuration="13.39" maxHaltingDuration="31.00" haltingDurationSum="18629.00" meanIntervalHaltingDuration="13.39" maxIntervalHaltingDuration="31.00" intervalHaltingDurationSum="18629.00" startedHalts="1448.00" meanVehicleNumber="8.32" maxVehicleNumber="13" />
   <interval begin="0.00" end="3600.00" id="27_22" sampledSeconds="25744.19" nVehEntered="592" nVehLeft="581" nVehSeen="592" meanSpeed="1.55" meanTimeLoss="38.58" meanOccupancy="42.42" maxOccupancy="73.57" meanMaxJamLengthInVehicles="4.67" meanMaxJamLengthInMeters="28.18" maxJamLengthInVehicles="12" maxJamLengthInMeters="75.03" jamLengthInVehiclesSum="17077" jamLengthInMetersSum="102838.67" meanHaltingDuration="14.68" maxHaltingDuration="42.00" haltingDurationSum="18323.00" meanIntervalHaltingDuration="14.68" maxIntervalHaltingDuration="42.00" intervalHaltingDurationSum="18323.00" startedHalts="1249.00" meanVehicleNumber="7.23" maxVehicleNumber="12" />
   <interval begin="0.00" end="3600.00" id="27_23" sampledSeconds="0.00" nVehEntered="0" nVehLeft="0" nVehSeen="0" meanSpeed="-1.00" meanTimeLoss="-1.00" meanOccupancy="0.00" maxOccupancy="0.00" meanMaxJamLengthInVehicles="0.00" meanMaxJamLengthInMeters="0.00" maxJamLengthInVehicles="0" maxJamLengthInMeters="0.00" jamLengthInVehiclesSum="0" jamLengthInMetersSum="0.00" meanHaltingDuration="0.00" maxHaltingDuration="0.00" haltingDurationSum="0.00" meanIntervalHaltingDuration="0.00" maxIntervalHaltingDuration="0.00" intervalHaltingDurationSum="0.00" startedHalts="0.00" meanVehicleNumber="0.00" maxVehicleNumber="0" />